# vtk DataFile Version 1.0
3D triangulation data
ASCII

DATASET POLYDATA
POINTS 12 float
0. 0. 0.
0. 1. 0.
0. 2. 0.
0. 3. 0.
1. 3. 0.
1. 2. 0.
1. 1. 0.
1. 0. 0.
2. 0. 0.
2. 1. 0.
2. 2. 0.
2. 3. 0.
POLYGONS 12 48
3	3	4	5
3	3	2	5
3	2	5	6
3	2	1	6
3	1	6	7
3	1	0	7
3	4	11	10
3	4	5	10
3	5	10	9
3	5	6	9
3	6	9	8
3	6	7	8
POINT_DATA 12
SCALARS UnodeY float 1
LOOKUP_TABLE default
0.0
0.00104981911767608
0.00178055400418557
0.00263891555117495
0.00176470588235248
0.00151536744325431
0.00112354810792052
0.00087420966882214
0.0
0.00085836154698961
0.00158909643349910
0.00263891555117603
VECTORS Displacements float
0	0	0
-0.000283169	0.001049819	0
-0.0001569	0.001780554	0
-3.57E-05	0.002638916	0
-0.000178627	0.001764706	0
-0.000355339	0.001515367	0
-0.000420528	0.001123548	0
-0.00059724	0.00087421	0
-0.00074017	0	0
-0.000618967	0.000858362	0
-0.000492698	0.001589096	0
-0.000775867	0.002638916	0